                         Program Version 6.0.1  -  RELEASE   -
|  1> # avogadro generated ORCA file
|  2> # C2H3O2 | Geometry Optimization | revPBE/def2-TZVP
|  3> #
|  4> ! Opt revPBE def2-TZVP
|  5>
|  6> %maxcore 16384
|  7>
|  8> %pal
|  9>    nprocs 1
| 10> end
| 11>
| 12> * xyz -1 1
| 13>    H     -0.867347   -0.232248   -1.357935
| 14>    C     -0.753741    0.357350   -0.443299
| 15>    H     -0.481411    1.382273   -0.712489
| 16>    H     -1.716999    0.380240    0.075439
| 17>    C      0.331008   -0.250617    0.428802
| 18>    O     -0.043626   -0.620321    1.576013
| 19>    O      1.472416   -0.307879   -0.108921
| 20> *
| 21>
| 22>
| 23>
| 24>                          ****END OF INPUT****
 Total Charge           Charge          ....   -1
 Multiplicity           Mult            ....    1
 Number of Electrons    NEL             ....   32
FINAL SINGLE POINT ENERGY      -228.547985240701
FINAL SINGLE POINT ENERGY      -228.549765329011
FINAL SINGLE POINT ENERGY      -228.549965323694
FINAL SINGLE POINT ENERGY      -228.549934017923
FINAL SINGLE POINT ENERGY      -228.549967464214
FINAL SINGLE POINT ENERGY      -228.550007733345
FINAL SINGLE POINT ENERGY      -228.550009125303
                    ***********************HURRAY********************

CARTESIAN COORDINATES (ANGSTROEM)
---------------------------------
  H     -0.876859   -0.213826   -1.385028
  C     -0.779339    0.366423   -0.450761
  H     -0.493444    1.392264   -0.742359
  H     -1.754343    0.393961    0.062348
  C      0.353364   -0.266455    0.454907
  O     -0.003615   -0.642442    1.609107
  O      1.494537   -0.321128   -0.090604

 Multiplicity           Mult            ....    1
 Number of Electrons    NEL             ....   32
 Basis Dimension        Dim             ....  142

ORBITAL ENERGIES
----------------

  NO   OCC          E(Eh)            E(eV)
   0   2.0000     -18.486675      -503.0480
   1   2.0000     -18.485009      -503.0027
   2   2.0000      -9.759275      -265.5634
   3   2.0000      -9.701862      -264.0011
   4   2.0000      -0.712104       -19.3773
   5   2.0000      -0.632857       -17.2209
   6   2.0000      -0.449984       -12.2447
   7   2.0000      -0.235641        -6.4121
   8   2.0000      -0.188429        -5.1274
   9   2.0000      -0.179646        -4.8884
  10   2.0000      -0.157527        -4.2865
  11   2.0000      -0.124899        -3.3987
  12   2.0000      -0.105986        -2.8840
  13   2.0000       0.001501         0.0408
  14   2.0000       0.019710         0.5363
  15   2.0000       0.028818         0.7842
  16   0.0000       0.189977         5.1695
  17   0.0000       0.217368         5.9149
  18   0.0000       0.254843         6.9346
  19   0.0000       0.273943         7.4544
  20   0.0000       0.298225         8.1151

MULLIKEN ATOMIC CHARGES
-----------------------
   0 H :    0.040331
   1 C :   -0.311161
   2 H :    0.040339
   3 H :    0.034412
   4 C :    0.192154
   5 O :   -0.496664
   6 O :   -0.499410
Sum of atomic charges:   -1.0000000

LOEWDIN ATOMIC CHARGES
----------------------
   0 H :    0.098042
   1 C :   -0.355592
   2 H :    0.098049
   3 H :    0.090014
   4 C :   -0.715880
   5 O :   -0.105808
   6 O :   -0.108826

  Mayer bond orders larger than 0.100000
B(  0-H ,  1-C ) :   0.9603 B(  1-C ,  2-H ) :   0.9603 B(  1-C ,  3-H ) :   0.9483
B(  1-C ,  4-C ) :   0.9003 B(  4-C ,  5-O ) :   1.9014 B(  4-C ,  6-O ) :   1.8790

FINAL SINGLE POINT ENERGY      -228.550009281438

DIPOLE MOMENT
-------------

Method             : SCF
Type of density    : Electron Density
Multiplicity       :   1
Irrep              :   0
Energy             :  -228.5500092814383777 Eh
Relativity type    :
Basis              : AO
                                X                 Y                 Z
Electronic contribution:      2.884093449      -1.636351115       2.368329065
Nuclear contribution   :     -3.660246325       2.069337213      -2.987295544
                        -----------------------------------------
Total Dipole Moment    :     -0.776152876       0.432986098      -0.618966479
                        -----------------------------------------
Magnitude (a.u.)       :      1.083055747
Magnitude (Debye)      :      2.752908932

Rotational constants in cm-1:             0.373928             0.325480             0.179890
Rotational constants in MHz :         11210.081785          9757.656487          5392.955881

                             ****ORCA TERMINATED NORMALLY****
TOTAL RUN TIME: 0 days 0 hours 0 minutes 38 seconds 212 msec
